HEADER
"PSFversion" "1.00"
"design" "(\"Design\" \"4bitadder_simulate\" \"schematic\" \"\")"
"simulator" "spectre"
"temperature" "27"
"host" ""
"date" "Oct 12 16:57:12 2022"
"title" ""
"analysisList" "()"
END
