HEADER
"PSFversion" "1.00"
"+143n +142n +136n +135n +129n +127n +125n +124n +118n +117n +111n +109n +107n +106n +100n +99n +93n +91n +89n +88n +82n +81n +75n +73n" "NCSU_Analog_Parts_pmos4_spectre"
"+497n +496n +495n +494n +493n +492n +491n +490n +489n +488n +487n +486n +485n +484n +483n +482n +481n +480n +479n +478n +477n +476n +475n +474n +473n +472n +471n +470n +469n +468n +467n +466n +465n +464n +463n +462n +461n +460n +459n +458n +457n +456n +455n +454n +453n +452n +451n +450n +449n +448n +447n +446n +445n +444n +443n +442n +441n +440n +439n +438n +437n +436n +435n +434n +433n +432n +431n +430n +429n +428n +427n +426n +425n +424n +423n +422n +421n +420n +419n +418n +417n +416n +415n +414n +413n +412n +411n +410n +409n +408n +407n +406n +405n +404n +403n +402n +401n +400n +399n +398n +397n +396n +395n +394n +393n +392n +391n +390n +389n +388n +387n +386n +385n +384n +383n +382n +381n +380n +379n +378n +377n +376n +375n +374n +373n +372n +371n +370n +369n +368n +367n +366n +365n +364n +363n +362n +361n +360n +359n +358n +357n +356n +355n +354n +353n +352n +351n +350n +349n +348n +347n +346n +345n +344n +343n +342n +341n +340n +339n +338n +337n +336n +335n +334n +333n +332n +331n +330n +329n +328n +327n +326n +325n +324n +323n +322n +321n +320n +319n +318n +317n +316n +315n +314n +313n +312n +311n +310n +309n +308n +307n +306n +305n +304n +303n +302n +301n +300n +299n +298n +297n +296n +295n +294n +293n +292n +291n +290n +289n +288n +287n +286n +285n +284n +283n +282n +281n +280n +279n +278n +277n +276n +275n +274n +273n +272n +271n +270n +269n +268n +267n +266n +265n +264n +263n +262n +261n +260n +259n +258n +257n +256n +255n +254n +253n +252n +251n +250n +249n +248n +247n +246n +245n +244n +243n +242n +241n +240n +239n +238n +237n +236n +235n +234n +233n +232n +231n +230n +229n +228n +227n +226n +225n +224n +223n +222n +221n +220n +219n +218n +217n +216n +215n +214n +213n +212n +211n +210n +209n +208n +207n +206n +205n +204n +203n +202n +201n +200n +199n +198n +197n +196n +195n +194n +193n +192n +191n +190n +189n +188n +187n +186n +185n +184n +183n +182n +181n +180n +179n +178n +177n +176n +175n +174n +173n +172n +171n +170n +169n +168n +167n +166n +165n +164n +163n +162n +161n +160n +159n +158n +157n +156n +155n +154n +153n +152n +151n +150n +149n +148n +147n +146n +145n +144n" "NCSU_Analog_Parts_pcapacitor_spectre"
"+71n +70n +64n +63n +57n +55n +53n +52n +46n +45n +39n +37n +35n +34n +28n +27n +21n +19n +17n +16n +10n +9n +3n +1n +69n +62n +61n +54n +51n +44n +43n +36n +33n +26n +25n +18n +15n +8n +7n +0n +68n +67n +66n +65n +60n +59n +58n +56n +50n +49n +48n +47n +42n +41n +40n +38n +32n +31n +30n +29n +24n +23n +22n +20n +14n +13n +12n +11n +6n +5n +4n +2n" "NCSU_Analog_Parts_nmos4_spectre"
"+141n +134n +133n +126n +123n +116n +115n +108n +105n +98n +97n +90n +87n +80n +79n +72n +140n +139n +138n +137n +132n +131n +130n +128n +122n +121n +120n +119n +114n +113n +112n +110n +104n +103n +102n +101n +96n +95n +94n +92n +86n +85n +84n +83n +78n +77n +76n +74n" "NCSU_Analog_Parts_pmos4_spectre"
"A<3>v" ":1v"
"A<2>v" ":2v"
"A<1>v" ":3v"
"A<0>v" ":4v"
"B<3>v" ":5v"
"B<2>v" ":6v"
"B<1>v" ":7v"
"B<0>v" ":8v"
"CINv" ":9v"
"COUTv" ":10v"
"GNDv" ":11v"
"SUM<3>v" ":12v"
"SUM<2>v" ":13v"
"SUM<1>v" ":14v"
"SUM<0>v" ":15v"
"VDDv" ":16v"
