HEADER
"PSFversion" "1.00"
"simulator" "spectre"
"version" "18.1.0.421.isr9"
"date" "1:09:23 PM, Fri Oct 7, 2022"
"design" "// Generated for: spectre"
"analysis type" "info.subckts"
"analysis name" "subckts"
"analysis description" "Circuit Information"
"xVecSorted" "unknown"
"tolerance.relative" 0.00100000
TYPE
"subckt" STRUCT(
"subckt_params" STRING *
"subckt_terminals" STRING *
"subckt_instances" STRING *
) PROP(
"key" "sub"
)
VALUE
"oneadder" "subckt" (
""
"A B C CARRY GND SUM VDD"
"I0"
)
END
