HEADER
"PSFversion" "1.00"
"Time Stamp" "Oct  7 13:09:19 2022"
TYPE
"variable" STRUCT(
"value" FLOAT DOUBLE
) PROP( "key" "element" )
VALUE
"temp" "variable" ( 27 ) PROP( )
END
