HEADER
"PSFversion" "1.00"
"Time Stamp" "Oct 28 18:20:34 2022"
TYPE
"variable" STRUCT(
"value" FLOAT DOUBLE
) PROP( "key" "element" )
VALUE
"temp" "variable" ( 27 ) PROP( )
END
