HEADER
"PSFversion" "1.00"
"N124n N125n N123n N122n N121n N120n N119n N118n N117n N116n N115n N114n N113n N112n N111n N110n N109n N108n N107n N106n N105n N104n N103n N102n N101n N100n N99n N98n N97n N96n N95n N94n N93n N92n N91n N90n N89n N88n N87n N86n N85n N84n N83n N82n N81n N80n N79n N78n N77n N76n N75n N74n N73n N72n N17n N16n N15n N14n N12n N11n N10n N9n N7n N6n N8n N5n N1n N0n N4n N3n N2n N13n" "NCSU_Analog_Parts_nmos4_spectre"
"P125n P124n P123n P122n P121n P120n P119n P118n P117n P116n P115n P114n P113n P112n P111n P110n P109n P108n P107n P106n P105n P104n P103n P102n P101n P100n P99n P98n P97n P96n P95n P94n P93n P92n P91n P90n P89n P88n P87n P86n P85n P84n P83n P82n P81n P80n P79n P78n P77n P76n P75n P74n P73n P72n P17n P16n P15n P14n P13n P12n P7n P6n P8n P4n P2n P0n P10n P3n P1n P11n P5n P9n" "NCSU_Analog_Parts_pmos4_spectre"
"A<3>v" ":1v"
"A<2>v" ":2v"
"A<1>v" ":3v"
"A<0>v" ":4v"
"B<3>v" ":5v"
"B<2>v" ":6v"
"B<1>v" ":7v"
"B<0>v" ":8v"
"CINv" ":9v"
"COUTv" ":10v"
"GNDv" ":11v"
"SUM<3>v" ":12v"
"SUM<2>v" ":13v"
"SUM<1>v" ":14v"
"SUM<0>v" ":15v"
"VDDv" ":16v"
