HEADER
"PSFversion" "1.00"
"__NEXT_FILE__" "flipflop_simulate_setup"
