HEADER
"PSFversion" "1.00"
"I0v" "xi0v"
"V0v" "v0v"
"I0n" "NAND2"
"V2v" "v2v"
"V0n" "NCSU_Analog_Parts_vdc_spectre"
"V1v" "v1v"
"C0v" "c0v"
"V2n V1n" "NCSU_Analog_Parts_vpulse_spectre"
"C0n" "NCSU_Analog_Parts_cap_spectre"
