HEADER
"PSFversion" "1.00"
"6v" "n6v"
"GNDv" "gndv"
"Bv" "bv"
"Av" "av"
"VDDv" "vddv"
