HEADER
"PSFversion" "1.00"
"inAv" "inav"
"inBv" "inbv"
"vdd!v" "vdd!v"
"gnd!v" "0v"
