HEADER
"PSFversion" "1.00"
"design" "(\"Design\" \"NAND2_simulate\" \"schematic\" \"\")"
"simulator" "spectre"
"temperature" "27"
"host" ""
"date" "Oct  6 17:39:26 2022"
"title" ""
"analysisList" "()"
END
