HEADER
"PSFversion" "1.00"
"design" "(\"Design\" \"flipflop_simulate_setup\" \"schematic\" \"\")"
"simulator" "spectre"
"temperature" "27"
"host" ""
"date" "Oct 28 19:18:22 2022"
"title" ""
"analysisList" "()"
END
