HEADER
"PSFversion" "1.00"
"design" "(\"Design\" \"XOR2_simulate\" \"schematic\" \"\")"
"simulator" "spectre"
"temperature" "27"
"host" ""
"date" "Oct  6 19:01:55 2022"
"title" ""
"analysisList" "()"
END
