HEADER
"PSFversion" "1.00"
"+11n +6n" "NCSU_Analog_Parts_pmos4_spectre"
"+44n +43n +42n +41n +40n +39n +38n +37n +36n +35n +34n +33n +32n +31n +30n +29n +28n +27n +26n +25n +24n +23n +22n +21n +20n +19n +18n +17n +16n +15n +14n +13n +12n" "NCSU_Analog_Parts_pcapacitor_spectre"
"+5n +0n +4n +3n +2n +1n" "NCSU_Analog_Parts_nmos4_spectre"
"+10n +9n +8n +7n" "NCSU_Analog_Parts_pmos4_spectre"
"Av" ":1v"
"Bv" ":2v"
"GNDv" ":3v"
"VDDv" ":4v"
"outv" ":5v"
