HEADER
"PSFversion" "1.00"
"Time Stamp" "Oct  6 16:02:51 2022"
TYPE
"variable" STRUCT(
"value" FLOAT DOUBLE
) PROP( "key" "element" )
VALUE
"temp" "variable" ( 27 ) PROP( )
END
