HEADER
"PSFversion" "1.00"
"Time Stamp" "Oct 28 19:18:23 2022"
TYPE
"variable" STRUCT(
"value" FLOAT DOUBLE
) PROP( "key" "element" )
VALUE
"delay" "variable" ( 9.9e-9 ) PROP( )
"temp" "variable" ( 27 ) PROP( )
END
