HEADER
"PSFversion" "1.00"
"Time Stamp" "Oct  6 17:38:28 2022"
TYPE
"variable" STRUCT(
"value" FLOAT DOUBLE
) PROP( "key" "element" )
VALUE
"TEMPDC" "variable" ( 25.0 ) PROP( )
END
