HEADER
"PSFversion" "1.00"
"I0n" "NAND2"
"V0n" "NCSU_Analog_Parts_vdc_spectre"
"V2n V1n" "NCSU_Analog_Parts_vpulse_spectre"
"C0n" "NCSU_Analog_Parts_cap_spectre"
