HEADER
"PSFversion" "1.00"
"__NEXT_FILE__" "NAND2_simulate"
