HEADER
"PSFversion" "1.00"
"+1n" "NCSU_Analog_Parts_pmos4_spectre"
"+4n +3n +2n" "NCSU_Analog_Parts_pcapacitor_spectre"
"+0n" "NCSU_Analog_Parts_nmos4_spectre"
"GNDv" ":1v"
"VDDv" ":2v"
"inv" ":3v"
"outv" ":4v"
